version 3
run General-0-20240507-05:02:30-22254
attr configname General
attr datetime 20240507-05:02:30
attr datetimef 20240507-050230
attr experiment General
attr inifile omnetpp.ini
attr iterationvars ""
attr iterationvarsd ""
attr iterationvarsf ""
attr measurement ""
attr network Network
attr processid 22254
attr repetition 0
attr replication #0
attr resultdir results
attr runnumber 0
attr seedset 0
config network Network
config sim-time-limit 200s
config Network.nodeTx.gen.generationInterval exponential(1)
config Network.nodeTx.gen.packetByteSize 12500
config Network.nodeTx.queue.bufferSize 2000000
config Network.queue.bufferSize 200
config Network.nodeRx.queue.bufferSize 200

vector 0 Network.nodeTx.queue PacketDropQueue ETV
vector 1 Network.queue PacketDropQueue ETV
vector 2 Network.nodeRx.queue PacketDropQueue ETV
vector 3 Network.nodeTx.queue BufferSizeQueue ETV
vector 4 Network.queue BufferSizeQueue ETV
vector 5 Network.nodeRx.queue BufferSizeQueue ETV
vector 6 Network.nodeRx.sink Delay ETV
0	0	0	0
1	0	0	0
2	0	0	0
3	2	0.795874504566	1
3	13	1.69443489305	1
3	24	2.950365651097	1
3	35	4.809969863172	1
3	46	5.733192994643	1
3	57	7.684738330527	1
3	68	8.471939470509	1
3	79	10.350903524712	1
3	90	10.901952011382	1
3	101	11.878958437775	1
3	112	12.917117738439	1
3	123	13.402245902161	1
3	134	13.977765099044	1
3	143	14.330924238182	1
3	156	16.554448660218	1
3	159	16.612833329311	1
3	176	19.927745609239	1
3	185	20.246101750081	1
3	198	20.729703855029	1
3	209	21.37915020328	1
3	220	22.948046320903	1
3	231	24.620257521228	1
3	242	25.372931634541	1
3	253	26.026814201762	1
3	264	26.866247054662	1
3	275	27.365119063678	1
3	286	29.963373149527	1
3	297	31.771742413802	1
3	300	31.845427769267	1
3	312	32.25700576551	1
3	318	32.348166791634	1
3	337	33.392779299942	1
3	340	33.413204888341	1
3	352	33.872453025596	1
3	368	35.659940689035	1
3	379	38.810110617711	1
3	390	40.315894876348	1
3	396	40.467125730013	1
3	411	42.507439987955	1
3	422	44.548332203867	1
3	433	48.393554073009	1
3	444	49.035263245687	1
3	455	50.640502802749	1
3	466	52.254504877642	1
3	477	52.873434337269	1
3	488	53.608398758459	1
3	499	55.124934732449	1
3	510	56.260873674159	1
3	516	56.386748083597	1
3	531	57.661975785821	1
3	542	58.68340766017	1
3	553	59.555728855212	1
3	559	59.710458535712	1
3	574	60.481293194179	1
3	585	63.375713672166	1
3	596	64.79707835226	1
3	607	65.534905644016	1
3	613	65.646851804649	1
3	628	66.182417524877	1
3	639	66.824112226908	1
3	648	67.131392579061	1
3	656	67.337595861091	1
3	672	68.825850686843	1
3	683	70.161140871467	1
3	694	70.77022329465	1
3	700	71.014271785387	1
3	716	71.854606490999	1
3	722	71.999884518291	1
3	725	72.018853087492	1
3	739	72.410623898169	1
3	756	73.372004837235	1
3	762	73.534141326681	1
3	777	74.481138003856	1
3	783	74.732579935931	1
3	799	75.692127913299	1
3	810	76.180684962607	1
3	821	79.058599983885	1
3	832	81.387513358099	1
3	843	82.532652312799	1
3	854	83.130398389617	1
3	865	83.575916884668	1
3	876	84.525411468165	1
3	887	85.099943874906	1
3	898	87.4262949366	1
3	909	88.622402736057	1
3	915	88.726963961832	1
3	918	88.789079252298	1
3	939	92.289292936753	1
3	950	93.388205404304	1
3	961	94.447039535792	1
3	972	95.557636981479	1
3	978	95.745063047497	1
3	988	95.98126975358	1
3	1004	96.424673782201	1
3	1010	96.562702470629	1
3	1025	97.95174516042	1
3	1034	98.330707124703	1
3	1047	99.266768684474	1
3	1058	99.718870744699	1
3	1067	100.111983302003	1
3	1080	100.956411095531	1
3	1083	100.995594251944	1
3	1100	101.572918562751	1
3	1111	102.578789567918	1
3	1122	107.033286414094	1
3	1133	110.226233056148	1
3	1139	110.333868164304	1
3	1154	111.391694577656	1
3	1160	111.625996096432	1
3	1176	112.634015341852	1
3	1182	112.809928887278	1
3	1197	118.170029237521	1
3	1208	119.228771952615	1
3	1219	120.100687806241	1
3	1225	120.392768339508	1
3	1241	120.927833016591	1
3	1252	121.555774597582	1
3	1263	122.199555599185	1
3	1269	122.479832607664	1
3	1285	123.456696681735	1
3	1291	123.629824137881	1
3	1304	124.042325367803	1
3	1312	124.159280777595	1
3	1327	125.282449079128	1
3	1338	126.350521276278	1
3	1347	126.732077119652	1
3	1355	126.880789388904	1
3	1370	128.387424722177	1
3	1376	128.606305318684	1
3	1392	131.593495210536	1
3	1403	132.053509168276	1
3	1414	133.139778549154	1
3	1425	134.860110206871	1
3	1428	134.873774785302	1
3	1433	134.975919666827	1
3	1454	135.951021600983	1
3	1465	137.770840520267	1
3	1476	138.890654886021	1
3	1482	138.99168966133	1
3	1497	142.565278033674	1
3	1508	146.314309493258	1
3	1519	148.41963079405	1
3	1530	149.051967390446	1
3	1541	149.764550983779	1
3	1552	153.526478268283	1
3	1555	153.583805194707	1
3	1572	154.512283691608	1
3	1583	155.112230578249	1
3	1594	156.456475850401	1
3	1597	156.476665978547	1
3	1599	156.516642277605	2
3	1618	157.099520666472	1
3	1632	157.431930907436	1
3	1645	161.323501030281	1
3	1651	161.451557795592	1
3	1664	161.896977257512	1
3	1675	162.248153346893	1
3	1688	162.903799631257	1
3	1694	163.030188267682	1
3	1709	164.197061794231	1
3	1718	164.579762743093	1
3	1731	166.703999940095	1
3	1742	167.238884315852	1
3	1753	169.742796098937	1
3	1756	169.809093500419	1
3	1766	170.053488948501	1
3	1783	171.232678475566	1
3	1794	172.065521991632	1
3	1805	172.901619523602	1
3	1816	174.904860046109	1
3	1825	175.213274886207	1
3	1838	175.924522823424	1
3	1849	176.665281773871	1
3	1860	179.150864130848	1
3	1863	179.249514439266	1
3	1880	181.789818947225	1
3	1891	182.647714588299	1
3	1894	182.734485070639	1
3	1911	185.383740999315	1
3	1920	185.709081414844	1
3	1931	186.092641628943	1
3	1934	186.102042379607	1
3	1953	187.202888289698	1
3	1964	189.0502159407	1
3	1970	189.191546654261	1
3	1985	190.23332730844	1
3	1996	191.493261118549	1
3	2007	193.334543590036	1
3	2016	193.676197757062	1
3	2027	193.983715480824	1
3	2035	194.186065919391	1
3	2051	194.693266042648	1
3	2062	195.576395084607	1
3	2073	196.381192484408	1
3	2076	196.401504943204	1
3	2083	196.581757195189	1
3	2103	198.347498267602	1
3	2114	198.809229163646	1
3	2117	198.813935704138	1
3	2122	198.972277210369	1
4	5	0.895974504566	1
4	16	1.79453489305	1
4	27	3.050465651097	1
4	38	4.910069863172	1
4	49	5.833292994643	1
4	60	7.784838330527	1
4	71	8.572039470509	1
4	82	10.451003524712	1
4	93	11.002052011382	1
4	104	11.979058437775	1
4	115	13.017217738439	1
4	126	13.502345902161	1
4	137	14.077865099044	1
4	148	14.431024238182	1
4	161	16.654548660218	1
4	164	16.754548660218	1
4	179	20.027845609239	1
4	190	20.346201750081	1
4	201	20.829803855029	1
4	212	21.47925020328	1
4	223	23.048146320903	1
4	234	24.720357521228	1
4	245	25.473031634541	1
4	256	26.126914201762	1
4	267	26.966347054662	1
4	278	27.465219063678	1
4	289	30.063473149527	1
4	302	31.871842413802	1
4	305	31.971842413802	1
4	320	32.35710576551	1
4	325	32.45710576551	1
4	342	33.492879299942	1
4	345	33.592879299942	1
4	358	33.972553025596	1
4	371	35.760040689035	1
4	382	38.910210617711	1
4	393	40.415994876348	1
4	399	40.567225730013	1
4	414	42.607539987955	1
4	425	44.648432203867	1
4	436	48.493654073009	1
4	447	49.135363245687	1
4	458	50.740602802749	1
4	469	52.354604877642	1
4	480	52.973534337269	1
4	491	53.708498758459	1
4	502	55.225034732449	1
4	513	56.360973674159	1
4	519	56.486848083597	1
4	534	57.762075785821	1
4	545	58.78350766017	1
4	556	59.655828855212	1
4	562	59.810558535712	1
4	577	60.581393194179	1
4	588	63.475813672166	1
4	599	64.89717835226	1
4	610	65.635005644016	1
4	616	65.746951804649	1
4	631	66.282517524877	1
4	642	66.924212226908	1
4	653	67.231492579061	1
4	662	67.437695861091	1
4	675	68.925950686843	1
4	686	70.261240871467	1
4	697	70.87032329465	1
4	706	71.114371785387	1
4	719	71.954706490999	1
4	727	72.099984518291	1
4	732	72.199984518291	1
4	744	72.510723898169	1
4	759	73.472104837235	1
4	765	73.634241326681	1
4	780	74.581238003856	1
4	789	74.832679935931	1
4	802	75.792227913299	1
4	813	76.280784962607	1
4	824	79.158699983885	1
4	835	81.487613358099	1
4	846	82.632752312799	1
4	857	83.230498389617	1
4	868	83.676016884668	1
4	879	84.625511468165	1
4	890	85.200043874906	1
4	901	87.5263949366	1
4	912	88.722502736057	1
4	920	88.827063961832	1
4	925	88.927063961832	1
4	942	92.389392936753	1
4	953	93.488305404304	1
4	964	94.547139535792	1
4	975	95.657736981479	1
4	981	95.845163047497	1
4	994	96.08136975358	1
4	1007	96.524773782201	1
4	1013	96.662802470629	1
4	1028	98.05184516042	1
4	1039	98.430807124703	1
4	1050	99.366868684474	1
4	1061	99.818970744699	1
4	1072	100.212083302003	1
4	1085	101.056511095531	1
4	1088	101.156511095531	1
4	1103	101.673018562751	1
4	1114	102.678889567918	1
4	1125	107.133386414094	1
4	1136	110.326333056148	1
4	1142	110.433968164304	1
4	1157	111.491794577656	1
4	1166	111.726096096432	1
4	1179	112.734115341852	1
4	1185	112.910028887278	1
4	1200	118.270129237521	1
4	1211	119.328871952615	1
4	1222	120.200787806241	1
4	1231	120.492868339508	1
4	1244	121.027933016591	1
4	1255	121.655874597582	1
4	1266	122.299655599185	1
4	1275	122.579932607664	1
4	1288	123.556796681735	1
4	1294	123.729924137881	1
4	1309	124.142425367803	1
4	1315	124.259380777595	1
4	1330	125.382549079128	1
4	1341	126.450621276278	1
4	1352	126.832177119652	1
4	1358	126.980889388904	1
4	1373	128.487524722177	1
4	1382	128.706405318684	1
4	1395	131.693595210536	1
4	1406	132.153609168276	1
4	1417	133.239878549154	1
4	1430	134.960210206871	1
4	1435	135.060210206871	1
4	1438	135.160210206871	1
4	1457	136.051121600983	1
4	1468	137.870940520267	1
4	1479	138.990754886021	1
4	1485	139.09178966133	1
4	1500	142.665378033674	1
4	1511	146.414409493258	1
4	1522	148.51973079405	1
4	1533	149.152067390446	1
4	1544	149.864650983779	1
4	1557	153.626578268283	1
4	1560	153.726578268283	1
4	1575	154.612383691608	1
4	1586	155.212330578249	1
4	1601	156.556575850401	1
4	1604	156.656575850401	1
4	1607	156.756575850401	1
4	1624	157.199620666472	1
4	1637	157.532030907436	1
4	1648	161.423601030281	1
4	1654	161.551657795592	1
4	1669	161.997077257512	1
4	1680	162.348253346893	1
4	1691	163.003899631257	1
4	1697	163.130288267682	1
4	1712	164.297161794231	1
4	1723	164.679862743093	1
4	1734	166.804099940095	1
4	1745	167.338984315852	1
4	1758	169.842896098937	1
4	1761	169.942896098937	1
4	1771	170.153588948501	1
4	1786	171.332778475566	1
4	1797	172.165621991632	1
4	1808	173.001719523602	1
4	1819	175.004960046109	1
4	1830	175.313374886207	1
4	1841	176.024622823424	1
4	1852	176.765381773871	1
4	1865	179.250964130848	1
4	1868	179.350964130848	1
4	1883	181.889918947225	1
4	1896	182.747814588299	1
4	1899	182.847814588299	1
4	1914	185.483840999315	1
4	1925	185.809181414844	1
4	1938	186.192741628943	1
4	1941	186.292741628943	1
4	1956	187.302988289698	1
4	1967	189.1503159407	1
4	1973	189.291646654261	1
4	1988	190.33342730844	1
4	1999	191.593361118549	1
4	2010	193.434643590036	1
4	2021	193.776297757062	1
4	2032	194.083815480824	1
4	2041	194.286165919391	1
4	2054	194.793366042648	1
4	2065	195.676495084607	1
4	2078	196.481292484408	1
4	2081	196.581292484408	1
4	2089	196.681857195189	1
4	2106	198.447598267602	1
4	2119	198.909329163646	1
4	2124	199.009329163646	1
4	2127	199.109329163646	1
5	8	1.096074504566	1
5	19	1.99463489305	1
5	30	3.250565651097	1
5	41	5.110169863172	1
5	52	6.033392994643	1
5	63	7.984938330527	1
5	74	8.772139470509	1
5	85	10.651103524712	1
5	96	11.202152011382	1
5	107	12.179158437775	1
5	118	13.217317738439	1
5	129	13.702445902161	1
5	140	14.277965099044	1
5	151	14.631124238182	1
5	166	16.854648660218	1
5	171	17.054648660218	1
5	182	20.227945609239	1
5	193	20.546301750081	1
5	204	21.029903855029	1
5	215	21.67935020328	1
5	226	23.248246320903	1
5	237	24.920457521228	1
5	248	25.673131634541	1
5	259	26.327014201762	1
5	270	27.166447054662	1
5	281	27.665319063678	1
5	292	30.263573149527	1
5	307	32.071942413802	1
5	315	32.271942413802	1
5	327	32.55720576551	1
5	332	32.75720576551	1
5	347	33.692979299942	1
5	355	33.892979299942	1
5	363	34.172653025596	1
5	374	35.960140689035	1
5	385	39.110310617711	1
5	401	40.616094876348	1
5	406	40.816094876348	1
5	417	42.807639987955	1
5	428	44.848532203867	1
5	439	48.693754073009	1
5	450	49.335463245687	1
5	461	50.940702802749	1
5	472	52.554704877642	1
5	483	53.173634337269	1
5	494	53.908598758459	1
5	505	55.425134732449	1
5	521	56.561073674159	1
5	526	56.761073674159	1
5	537	57.962175785821	1
5	548	58.98360766017	1
5	564	59.855928855212	1
5	569	60.055928855212	1
5	580	60.781493194179	1
5	591	63.675913672166	1
5	602	65.09727835226	1
5	618	65.835105644016	1
5	623	66.035105644016	1
5	634	66.482617524877	1
5	645	67.124312226908	1
5	659	67.431592579061	1
5	667	67.637795861091	1
5	678	69.126050686843	1
5	689	70.461340871467	1
5	703	71.07042329465	1
5	711	71.314471785387	1
5	729	72.154806490999	1
5	736	72.354806490999	1
5	746	72.554806490999	1
5	751	72.754806490999	1
5	767	73.672204837235	1
5	772	73.872204837235	1
5	786	74.781338003856	1
5	794	75.032779935931	1
5	805	75.992327913299	1
5	816	76.480884962607	1
5	827	79.358799983885	1
5	838	81.687713358099	1
5	849	82.832852312799	1
5	860	83.430598389617	1
5	871	83.876116884668	1
5	882	84.825611468165	1
5	893	85.400143874906	1
5	904	87.7264949366	1
5	922	88.922602736057	1
5	929	89.122602736057	1
5	934	89.322602736057	1
5	945	92.589492936753	1
5	956	93.688405404304	1
5	967	94.747239535792	1
5	983	95.857836981479	1
5	991	96.057836981479	1
5	999	96.28146975358	1
5	1015	96.724873782201	1
5	1020	96.924873782201	1
5	1031	98.25194516042	1
5	1042	98.630907124703	1
5	1053	99.566968684474	1
5	1064	100.019070744699	1
5	1075	100.412183302003	1
5	1090	101.256611095531	1
5	1095	101.456611095531	1
5	1106	101.873118562751	1
5	1117	102.878989567918	1
5	1128	107.333486414094	1
5	1144	110.526433056148	1
5	1149	110.726433056148	1
5	1163	111.691894577656	1
5	1171	111.926196096432	1
5	1187	112.934215341852	1
5	1192	113.134215341852	1
5	1203	118.470229237521	1
5	1214	119.528971952615	1
5	1228	120.400887806241	1
5	1236	120.692968339508	1
5	1247	121.228033016591	1
5	1258	121.855974597582	1
5	1272	122.499755599185	1
5	1280	122.780032607664	1
5	1296	123.756896681735	1
5	1301	123.956896681735	1
5	1317	124.342525367803	1
5	1322	124.542525367803	1
5	1333	125.582649079128	1
5	1344	126.650721276278	1
5	1360	127.032277119652	1
5	1365	127.232277119652	1
5	1379	128.687624722177	1
5	1387	128.906505318684	1
5	1398	131.893695210536	1
5	1409	132.353709168276	1
5	1420	133.439978549154	1
5	1439	135.160310206871	1
5	1444	135.360310206871	1
5	1449	135.560310206871	1
5	1460	136.251221600983	1
5	1471	138.071040520267	1
5	1487	139.190854886021	1
5	1492	139.390854886021	1
5	1503	142.865478033674	1
5	1514	146.614509493258	1
5	1525	148.71983079405	1
5	1536	149.352167390446	1
5	1547	150.064750983779	1
5	1562	153.826678268283	1
5	1567	154.026678268283	1
5	1578	154.812483691608	1
5	1589	155.412430578249	1
5	1608	156.756675850401	1
5	1613	156.956675850401	1
5	1621	157.156675850401	1
5	1629	157.399720666472	1
5	1640	157.732130907436	1
5	1656	161.623701030281	1
5	1661	161.823701030281	1
5	1672	162.197177257512	1
5	1683	162.548353346893	1
5	1699	163.203999631257	1
5	1704	163.403999631257	1
5	1715	164.497261794231	1
5	1726	164.879962743093	1
5	1737	167.004199940095	1
5	1748	167.539084315852	1
5	1763	170.042996098937	1
5	1773	170.242996098937	1
5	1778	170.442996098937	1
5	1789	171.532878475566	1
5	1800	172.365721991632	1
5	1811	173.201819523602	1
5	1822	175.205060046109	1
5	1833	175.513474886207	1
5	1844	176.224722823424	1
5	1855	176.965481773871	1
5	1870	179.451064130848	1
5	1875	179.651064130848	1
5	1886	182.090018947225	1
5	1901	182.947914588299	1
5	1906	183.147914588299	1
5	1917	185.683940999315	1
5	1928	186.009281414844	1
5	1943	186.392841628943	1
5	1948	186.592841628943	1
5	1959	187.503088289698	1
5	1975	189.3504159407	1
5	1980	189.5504159407	1
5	1991	190.53352730844	1
5	2002	191.793461118549	1
5	2013	193.634743590036	1
5	2024	193.976397757062	1
5	2038	194.283915480824	1
5	2046	194.486265919391	1
5	2057	194.993466042648	1
5	2068	195.876595084607	1
5	2086	196.681392484408	1
5	2093	196.881392484408	1
5	2098	197.081392484408	1
5	2109	198.647698267602	1
5	2128	199.109429163646	1
5	2133	199.309429163646	1
5	2138	199.509429163646	1
6	10	1.196074504566	0.4002
6	21	2.09463489305	0.4002
6	32	3.350565651097	0.4002
6	43	5.210169863172	0.4002
6	54	6.133392994643	0.4002
6	65	8.084938330527	0.4002
6	76	8.872139470509	0.4002
6	87	10.751103524712	0.4002
6	98	11.302152011382	0.4002
6	109	12.279158437775	0.4002
6	120	13.317317738439	0.4002
6	131	13.802445902161	0.4002
6	145	14.377965099044	0.4002
6	153	14.731124238182	0.4002
6	168	16.954648660218	0.4002
6	173	17.154648660218	0.541815330907
6	187	20.327945609239	0.4002
6	195	20.646301750081	0.4002
6	206	21.129903855029	0.4002
6	217	21.77935020328	0.4002
6	228	23.348246320903	0.4002
6	239	25.020457521228	0.4002
6	250	25.773131634541	0.4002
6	261	26.427014201762	0.4002
6	272	27.266447054662	0.4002
6	283	27.765319063678	0.4002
6	294	30.363573149527	0.4002
6	309	32.171942413802	0.4002
6	322	32.371942413802	0.526514644535
6	329	32.65720576551	0.4002
6	334	32.85720576551	0.509038973876
6	349	33.792979299942	0.4002
6	360	33.992979299942	0.579774411601
6	365	34.272653025596	0.4002
6	376	36.060140689035	0.4002
6	387	39.210310617711	0.4002
6	403	40.716094876348	0.4002
6	408	40.916094876348	0.448969146335
6	419	42.907639987955	0.4002
6	430	44.948532203867	0.4002
6	441	48.793754073009	0.4002
6	452	49.435463245687	0.4002
6	463	51.040702802749	0.4002
6	474	52.654704877642	0.4002
6	485	53.273634337269	0.4002
6	496	54.008598758459	0.4002
6	507	55.525134732449	0.4002
6	523	56.661073674159	0.4002
6	528	56.861073674159	0.474325590562
6	539	58.062175785821	0.4002
6	550	59.08360766017	0.4002
6	566	59.955928855212	0.4002
6	571	60.155928855212	0.4454703195
6	582	60.881493194179	0.4002
6	593	63.775913672166	0.4002
6	604	65.19727835226	0.4002
6	620	65.935105644016	0.4002
6	625	66.135105644016	0.488253839367
6	636	66.582617524877	0.4002
6	650	67.224312226908	0.4002
6	664	67.531592579061	0.4002
6	669	67.737795861091	0.4002
6	680	69.226050686843	0.4002
6	691	70.561340871467	0.4002
6	708	71.17042329465	0.4002
6	713	71.414471785387	0.4002
6	733	72.254806490999	0.4002
6	741	72.454806490999	0.454921972708
6	748	72.654806490999	0.635953403507
6	753	72.854806490999	0.44418259283
6	769	73.772204837235	0.4002
6	774	73.972204837235	0.438063510554
6	791	74.881338003856	0.4002
6	796	75.132779935931	0.4002
6	807	76.092327913299	0.4002
6	818	76.580884962607	0.4002
6	829	79.458799983885	0.4002
6	840	81.787713358099	0.4002
6	851	82.932852312799	0.4002
6	862	83.530598389617	0.4002
6	873	83.976116884668	0.4002
6	884	84.925611468165	0.4002
6	895	85.500143874906	0.4002
6	906	87.8264949366	0.4002
6	926	89.022602736057	0.4002
6	931	89.222602736057	0.495638774225
6	936	89.422602736057	0.633523483759
6	947	92.689492936753	0.4002
6	958	93.788405404304	0.4002
6	969	94.847239535792	0.4002
6	985	95.957836981479	0.4002
6	996	96.157836981479	0.412773933982
6	1001	96.38146975358	0.4002
6	1017	96.824873782201	0.4002
6	1022	97.024873782201	0.462171311572
6	1036	98.35194516042	0.4002
6	1044	98.730907124703	0.4002
6	1055	99.666968684474	0.4002
6	1069	100.119070744699	0.4002
6	1077	100.512183302003	0.4002
6	1092	101.356611095531	0.4002
6	1097	101.556611095531	0.561016843587
6	1108	101.973118562751	0.4002
6	1119	102.978989567918	0.4002
6	1130	107.433486414094	0.4002
6	1146	110.626433056148	0.4002
6	1151	110.826433056148	0.492564891844
6	1168	111.791894577656	0.4002
6	1173	112.026196096432	0.4002
6	1189	113.034215341852	0.4002
6	1194	113.234215341852	0.424286454574
6	1205	118.570229237521	0.4002
6	1216	119.628971952615	0.4002
6	1233	120.500887806241	0.4002
6	1238	120.792968339508	0.4002
6	1249	121.328033016591	0.4002
6	1260	121.955974597582	0.4002
6	1277	122.599755599185	0.4002
6	1282	122.880032607664	0.4002
6	1298	123.856896681735	0.4002
6	1306	124.056896681735	0.427072543854
6	1319	124.442525367803	0.4002
6	1324	124.642525367803	0.483244590208
6	1335	125.682649079128	0.4002
6	1349	126.750721276278	0.4002
6	1362	127.132277119652	0.4002
6	1367	127.332277119652	0.451487730748
6	1384	128.787624722177	0.4002
6	1389	129.006505318684	0.4002
6	1400	131.993695210536	0.4002
6	1411	132.453709168276	0.4002
6	1422	133.539978549154	0.4002
6	1441	135.260310206871	0.4002
6	1446	135.460310206871	0.586535421569
6	1451	135.660310206871	0.684390540044
6	1462	136.351221600983	0.4002
6	1473	138.171040520267	0.4002
6	1489	139.290854886021	0.4002
6	1494	139.490854886021	0.499165224691
6	1505	142.965478033674	0.4002
6	1516	146.714509493258	0.4002
6	1527	148.81983079405	0.4002
6	1538	149.452167390446	0.4002
6	1549	150.164750983779	0.4002
6	1564	153.926678268283	0.4002
6	1569	154.126678268283	0.542873073576
6	1580	154.912483691608	0.4002
6	1591	155.512430578249	0.4002
6	1610	156.856675850401	0.4002
6	1615	157.056675850401	0.580009871854
6	1626	157.256675850401	0.740033572796
6	1634	157.499720666472	0.4002
6	1642	157.832130907436	0.4002
6	1658	161.723701030281	0.4002
6	1666	161.923701030281	0.472143234689
6	1677	162.297177257512	0.4002
6	1685	162.648353346893	0.4002
6	1701	163.303999631257	0.4002
6	1706	163.503999631257	0.473811363575
6	1720	164.597261794231	0.4002
6	1728	164.979962743093	0.4002
6	1739	167.104199940095	0.4002
6	1750	167.639084315852	0.4002
6	1768	170.142996098937	0.4002
6	1775	170.342996098937	0.533902598518
6	1780	170.542996098937	0.489507150436
6	1791	171.632878475566	0.4002
6	1802	172.465721991632	0.4002
6	1813	173.301819523602	0.4002
6	1827	175.305060046109	0.4002
6	1835	175.613474886207	0.4002
6	1846	176.324722823424	0.4002
6	1857	177.065481773871	0.4002
6	1872	179.551064130848	0.4002
6	1877	179.751064130848	0.501549691582
6	1888	182.190018947225	0.4002
6	1903	183.047914588299	0.4002
6	1908	183.247914588299	0.51342951766
6	1922	185.783940999315	0.4002
6	1935	186.109281414844	0.4002
6	1945	186.492841628943	0.4002
6	1950	186.692841628943	0.590799249336
6	1961	187.603088289698	0.4002
6	1977	189.4504159407	0.4002
6	1982	189.6504159407	0.458869286439
6	1993	190.63352730844	0.4002
6	2004	191.893461118549	0.4002
6	2018	193.734743590036	0.4002
6	2029	194.076397757062	0.4002
6	2043	194.383915480824	0.4002
6	2048	194.586265919391	0.4002
6	2059	195.093466042648	0.4002
6	2070	195.976595084607	0.4002
6	2090	196.781392484408	0.4002
6	2095	196.981392484408	0.579887541204
6	2100	197.181392484408	0.599635289219
6	2111	198.747698267602	0.4002
6	2130	199.209429163646	0.4002
6	2135	199.409429163646	0.595493459508
6	2140	199.609429163646	0.637151953277

